<?xml version="1.0"?><VTKFile type="UnstructuredGrid" version="0.1" byte_order="LittleEndian">
  <UnstructuredGrid>
    <Piece NumberOfCells="81" NumberOfPoints="160"><Points><DataArray NumberOfComponents="3" type="Float32" Name="position" format="ascii">37.8143 64.124 0.0 48.9417 66.4815 0.0 53.9396 62.5209 0.0 47.7158 43.7552 0.0 40.4547 42.7179 0.0 54.4111 35.834 0.0 49.5075 27.5356 0.0 40.549 79.212 0.0 47.7158 77.2317 0.0 48.5645 93.4513 0.0 52.9966 87.3218 0.0 65.9157 91.0938 0.0 71.1022 85.3415 0.0 65.6328 67.896 0.0 63.6525 64.3126 0.0 59.2204 105.7103 0.0 68.0846 101.6554 0.0 64.7841 36.0226 0.0 68.0846 24.4237 0.0 60.4463 16.974 0.0 71.668 45.0754 0.0 71.668 116.1776 0.0 75.8172 108.6336 0.0 79.6835 18.86 0.0 79.7778 7.8269 0.0 74.2141 66.2929 0.0 77.0431 61.9551 0.0 79.5892 54.8826 0.0 80.4379 50.3562 0.0 75.9115 44.2267 0.0 89.3964 38.0972 0.0 92.6969 35.4568 0.0 91.471 24.8952 0.0 86.9446 109.7652 0.0 96.3746 103.2585 0.0 96.4689 94.8658 0.0 80.6265 85.9073 0.0 84.3985 79.7778 0.0 79.1177 71.668 0.0 87.4161 119.5724 0.0 84.2099 68.5561 0.0 84.5871 65.9157 0.0 83.6441 61.295 0.0 84.87 50.1676 0.0 90.6223 48.093 0.0 93.0741 44.321 0.0 84.2099 60.1634 0.0 83.6441 56.7686 0.0 86.756 78.7405 0.0 87.8876 73.3654 0.0 86.5674 69.4991 0.0 86.2845 55.9199 0.0 87.0389 54.8826 0.0 87.5104 53.2795 0.0 101.3725 17.8227 0.0 98.9207 6.2238 0.0 102.9756 88.4534 0.0 100.2409 82.4182 0.0 97.4119 81.1923 0.0 91.471 79.5892 0.0 87.9819 68.2732 0.0 88.3591 67.3302 0.0 86.2845 65.4442 0.0 86.6617 61.1064 0.0 87.8876 58.7489 0.0 87.2275 63.3696 0.0 90.528 52.4308 0.0 91.6596 51.2992 0.0 91.0938 65.6328 0.0 90.2451 63.3696 0.0 90.2451 58.7489 0.0 91.1881 56.4857 0.0 90.6223 55.7313 0.0 90.8109 73.3654 0.0 90.3394 70.1592 0.0 92.7912 75.9115 0.0 92.414 74.6856 0.0 91.3767 53.9396 0.0 92.1311 61.2007 0.0 104.7673 120.4211 0.0 107.8792 108.2564 0.0 93.357 69.4048 0.0 93.2627 66.6701 0.0 100.3352 46.8671 0.0 106.0875 46.7728 0.0 109.2937 40.4547 0.0 97.2233 66.1043 0.0 98.6378 64.3126 0.0 97.6005 61.2007 0.0 94.9601 60.4463 0.0 94.8658 57.523 0.0 93.4513 56.1085 0.0 92.5083 53.751 0.0 93.5456 51.7707 0.0 93.5456 54.7883 0.0 95.0544 72.4224 0.0 95.4316 71.4794 0.0 97.7891 76.7602 0.0 96.0917 75.8172 0.0 96.0917 52.2422 0.0 99.015 51.1106 0.0 95.8088 54.3168 0.0 114.5745 39.8889 0.0 118.9123 34.0423 0.0 111.9341 20.2745 0.0 96.7518 73.554 0.0 97.129 70.9136 0.0 97.9777 67.896 0.0 96.9404 56.2028 0.0 99.958 59.6919 0.0 99.015 56.6743 0.0 97.4119 73.3654 0.0 97.8834 72.0452 0.0 100.7124 54.5997 0.0 98.3549 74.9685 0.0 118.7237 106.9362 0.0 124.6646 102.787 0.0 129.0024 94.3943 0.0 128.5309 82.3239 0.0 123.1558 77.7032 0.0 118.1579 78.5519 0.0 100.3352 72.2338 0.0 101.6554 70.3478 0.0 101.5611 67.896 0.0 102.8813 65.1613 0.0 101.9383 64.2183 0.0 104.2958 78.269 0.0 102.0326 74.5913 0.0 100.8067 74.4027 0.0 102.9756 61.4836 0.0 102.2212 60.6349 0.0 104.0129 55.7313 0.0 105.8046 56.58 0.0 109.1051 51.9593 0.0 113.7258 72.2338 0.0 110.5196 73.1768 0.0 103.3528 70.9136 0.0 116.4605 12.5419 0.0 106.0875 70.0649 0.0 105.2388 65.4442 0.0 107.4077 62.8981 0.0 105.2388 61.1064 0.0 120.5154 116.2719 0.0 113.8201 63.0867 0.0 115.8004 57.6173 0.0 122.0242 53.751 0.0 128.5309 31.6848 0.0 131.6428 24.3294 0.0 126.2677 57.4287 0.0 133.8117 56.2028 0.0 137.5837 47.5272 0.0 136.0749 38.1915 0.0 130.8884 108.2564 0.0 138.621 75.5343 0.0 139.9412 63.9354 0.0 138.5267 95.3373 0.0 142.2044 32.1563 0.0 144.6562 79.9664 0.0 147.8624 61.6722 0.0 147.5795 47.2443 0.0</DataArray></Points><Cells><DataArray NumberOfComponents="1" type="Int32" Name="connectivity" format="ascii">0 1 2 3 4 3 4 6 5 0 1 8 7 8 7 9 10 1 2 14 13 12 11 10 8 16 15 9 10 11 18 19 6 5 17 2 3 5 17 20 14 21 15 16 22 18 19 24 23 25 13 14 20 29 28 27 26 20 29 30 31 32 23 18 17 33 22 16 11 12 36 35 34 36 12 13 25 38 37 21 39 33 22 25 26 42 41 40 38 28 29 30 45 44 43 27 47 46 42 26 48 37 38 40 50 49 27 47 51 52 53 43 28 24 23 32 54 55 48 37 36 35 56 57 58 59 40 50 60 61 62 41 51 47 46 63 64 65 62 41 42 46 63 43 53 66 67 44 65 62 61 68 69 64 70 71 72 52 51 50 60 74 73 49 48 49 73 76 75 59 66 77 72 52 53 64 70 78 69 65 63 80 34 33 39 79 74 60 61 68 82 81 30 31 85 84 83 45 69 78 89 88 87 86 82 68 70 71 91 90 89 78 92 77 66 67 93 92 77 72 71 91 94 76 95 96 81 74 73 97 58 59 75 98 67 93 99 100 83 45 44 92 93 99 101 94 32 54 104 103 102 85 31 75 76 95 105 98 96 81 82 86 107 106 90 108 101 94 91 88 109 110 108 90 89 112 106 96 95 105 111 113 110 108 101 99 100 97 98 105 111 114 80 115 116 117 118 119 120 56 35 34 112 106 107 123 122 121 123 107 86 87 125 124 97 114 128 127 126 57 58 112 121 128 114 111 125 87 88 109 130 129 113 100 83 84 133 132 131 113 110 109 130 131 120 134 135 126 57 56 128 121 122 136 127 54 55 137 104 136 122 123 124 139 138 139 124 125 129 141 140 126 135 138 136 127 129 130 131 132 141 115 142 79 80 140 141 132 133 144 143 134 135 138 139 140 143 84 85 102 145 144 133 146 147 137 104 103 120 134 143 144 145 148 119 102 103 146 151 150 149 148 145 115 142 152 116 153 118 119 148 149 154 152 116 117 155 146 147 156 151 117 118 153 157 155 158 159 150 149 154 150 151 156 159 153 157 158 154</DataArray><DataArray NumberOfComponents="1" type="Int32" Name="offsets" format="ascii">5 9 13 17 25 30 35 41 45 49 57 65 73 79 83 89 95 100 106 113 118 126 132 137 143 148 153 159 164 170 175 181 186 192 198 206 212 217 223 229 234 241 246 253 258 264 269 275 281 287 292 302 308 314 321 326 332 339 344 350 355 359 365 371 376 381 385 391 397 403 408 415 423 427 433 437 441 446 451 455 459</DataArray><DataArray NumberOfComponents="1" type="UInt8" Name="types" format="ascii">7 7 7 7 7 7 7 7 7 7 7 7 7 7 7 7 7 7 7 7 7 7 7 7 7 7 7 7 7 7 7 7 7 7 7 7 7 7 7 7 7 7 7 7 7 7 7 7 7 7 7 7 7 7 7 7 7 7 7 7 7 7 7 7 7 7 7 7 7 7 7 7 7 7 7 7 7 7 7 7 7</DataArray></Cells><CellData><DataArray NumberOfComponents="1" type="Float32" Name="delta" format="ascii">0.988137959881 0.987357822232 0.987886962722 0.987882317411 0.0131965529175 0.988137741546 0.987438148051 0.0175755826264 0.987880161646 0.986369808438 0.0113217801698 0.0113437267137 0.0132109841996 0.0117202628926 0.987878932263 0.0103546040996 0.0117065966565 0.0111359196674 0.0107113333687 0.0105201485331 0.987099315117 0.0131624325072 0.949044054409 0.0111346520719 0.0103526469621 0.014962788961 0.0104609122664 0.0116852885647 0.0149666176962 0.0175011946471 0.973674701626 0.0116878738807 0.988137532825 0.0117167256838 0.0107075340681 0.0130999089312 0.0107111930201 0.984239434735 0.979011214484 0.985908972043 0.0151524598477 0.01099323474 0.977224283644 0.0123901555596 0.985740182517 0.0174962700146 0.014950666568 0.011683019727 0.986364222886 0.010705690592 0.986313693355 0.0121857415604 0.985871841037 0.0117048956985 0.0110131840798 0.985061339693 0.0103554306223 0.0109839410782 0.0111379012388 0.0107129777634 0.0150614417129 0.986892207147 0.0117017530572 0.947324024005 0.0150255461268 0.0104539878117 0.987880286337 0.0103539021244 0.0103570536296 0.0107055108448 0.98781220741 0.0123686616262 0.0131876713225 0.988390886234 0.0175817076426 0.987884951459 0.987879431612 0.988139656644 0.988139361406 0.987886063916 0.987362933003 </DataArray><DataArray NumberOfComponents="1" type="Float32" Name="notch" format="ascii">0.0109564762743 0.0113154977043 0.0110731937743 0.0110753428774 0.864739431203 0.0109565783179 0.0112790334484 0.747644409232 0.0110763400844 0.0117552290158 0.934479327209 0.933565486714 0.864260676296 0.918270859919 0.0110769087298 0.977625248503 0.918813065948 0.942334037977 0.961034926419 0.969821363442 0.0114320985147 0.8658729147 0.0231715052082 0.942388267655 0.977718617385 0.811372505392 0.97259328962 0.919661284406 0.811267137536 0.749259881855 0.0164429489345 0.919557422571 0.0109566758674 0.918412081598 0.961207801297 0.867964317901 0.961041360452 0.012654223889 0.0146419804094 0.0119550921735 0.806200728148 0.948498743733 0.0152664794531 0.8928005223 0.0120275107357 0.749367314444 0.811706373009 0.919750673321 0.0117576706629 0.961290960964 0.0117797372037 0.900350859755 0.0119710585587 0.918881573718 0.947629752605 0.0123147099846 0.977585828481 0.948903866677 0.942249259726 0.960960866358 0.808670400527 0.0115247078506 0.919006414016 0.0235807177488 0.809648779041 0.972918736189 0.0110762824075 0.97765872852 0.977508434353 0.961299596518 0.0111077304693 0.893584333498 0.865034464963 0.0108376511493 0.747511838112 0.0110741243122 0.0110766777615 0.0109556832252 0.0109558212201 0.0110736096283 0.011313180972 </DataArray><DataArray NumberOfComponents="1" type="Float32" Name="cell_type" format="ascii">2 2 2 2 4 2 2 4 2 2 3 4 4 3 2 21 3 16 21 16 2 3 19 22 22 16 20 22 22 16 23 22 2 22 3 20 22 23 23 22 16 16 23 4 23 22 22 22 23 22 23 4 22 22 16 23 20 16 22 3 22 2 22 19 16 22 2 21 21 3 2 3 4 2 4 2 2 2 2 2 2 </DataArray><DataArray NumberOfComponents="1" type="Float32" Name="V" format="ascii">263.302182655 107.016670905 118.03001977 97.50615285 468.12735107 218.074978515 226.26051556 466.824601285 115.27334787 170.66466808 239.532556885 499.41113089 545.92774608 233.165534045 120.74222922 72.46490101 126.108846935 32.960014185 58.730450205 38.437788025 304.145389225 213.08184538 11.173413685 14.525882415 13.9612093 20.59500684 12.83186307 13.01860536 14.321355145 28.30479567 9.421593155 18.829847575 270.860799155 16.47778397 140.44798706 38.153228345 17.50931281 4.913100725 5.793457235 17.14472072 24.85450955 52.54572341 7.687557605 437.239287055 9.990712515 18.829847575 7.109545755 18.740922675 4.74858966 18.20292703 4.68634223 698.44284207 16.19322429 16.32661164 37.0816833 7.331858005 17.673823875 68.556651655 18.7631539 137.07773335 7.936547325 140.35906216 19.888053885 15.7397073 38.01539475 13.218686385 141.13270879 78.68964401 71.30887731 161.589882035 238.607737925 226.522844015 404.2525954 84.758768435 311.47724723 103.103975305 93.7268446 216.812244935 180.975510235 109.33316455 106.75434245 </DataArray></CellData></Piece>
  </UnstructuredGrid>
</VTKFile>
