<?xml version="1.0"?><VTKFile type="UnstructuredGrid" version="0.1" byte_order="LittleEndian">
  <UnstructuredGrid>
    <Piece NumberOfCells="240" NumberOfPoints="160"><Points><DataArray NumberOfComponents="3" type="Float32" Name="position" format="ascii">37.8143 64.124 0.0 48.9417 66.4815 0.0 53.9396 62.5209 0.0 47.7158 43.7552 0.0 40.4547 42.7179 0.0 54.4111 35.834 0.0 49.5075 27.5356 0.0 40.549 79.212 0.0 47.7158 77.2317 0.0 48.5645 93.4513 0.0 52.9966 87.3218 0.0 65.9157 91.0938 0.0 71.1022 85.3415 0.0 65.6328 67.896 0.0 63.6525 64.3126 0.0 59.2204 105.7103 0.0 68.0846 101.6554 0.0 64.7841 36.0226 0.0 68.0846 24.4237 0.0 60.4463 16.974 0.0 71.668 45.0754 0.0 71.668 116.1776 0.0 75.8172 108.6336 0.0 79.6835 18.86 0.0 79.7778 7.8269 0.0 74.2141 66.2929 0.0 77.0431 61.9551 0.0 79.5892 54.8826 0.0 80.4379 50.3562 0.0 75.9115 44.2267 0.0 89.3964 38.0972 0.0 92.6969 35.4568 0.0 91.471 24.8952 0.0 86.9446 109.7652 0.0 96.3746 103.2585 0.0 96.4689 94.8658 0.0 80.6265 85.9073 0.0 84.3985 79.7778 0.0 79.1177 71.668 0.0 87.4161 119.5724 0.0 84.2099 68.5561 0.0 84.5871 65.9157 0.0 83.6441 61.295 0.0 84.87 50.1676 0.0 90.6223 48.093 0.0 93.0741 44.321 0.0 84.2099 60.1634 0.0 83.6441 56.7686 0.0 86.756 78.7405 0.0 87.8876 73.3654 0.0 86.5674 69.4991 0.0 86.2845 55.9199 0.0 87.0389 54.8826 0.0 87.5104 53.2795 0.0 101.3725 17.8227 0.0 98.9207 6.2238 0.0 102.9756 88.4534 0.0 100.2409 82.4182 0.0 97.4119 81.1923 0.0 91.471 79.5892 0.0 87.9819 68.2732 0.0 88.3591 67.3302 0.0 86.2845 65.4442 0.0 86.6617 61.1064 0.0 87.8876 58.7489 0.0 87.2275 63.3696 0.0 90.528 52.4308 0.0 91.6596 51.2992 0.0 91.0938 65.6328 0.0 90.2451 63.3696 0.0 90.2451 58.7489 0.0 91.1881 56.4857 0.0 90.6223 55.7313 0.0 90.8109 73.3654 0.0 90.3394 70.1592 0.0 92.7912 75.9115 0.0 92.414 74.6856 0.0 91.3767 53.9396 0.0 92.1311 61.2007 0.0 104.7673 120.4211 0.0 107.8792 108.2564 0.0 93.357 69.4048 0.0 93.2627 66.6701 0.0 100.3352 46.8671 0.0 106.0875 46.7728 0.0 109.2937 40.4547 0.0 97.2233 66.1043 0.0 98.6378 64.3126 0.0 97.6005 61.2007 0.0 94.9601 60.4463 0.0 94.8658 57.523 0.0 93.4513 56.1085 0.0 92.5083 53.751 0.0 93.5456 51.7707 0.0 93.5456 54.7883 0.0 95.0544 72.4224 0.0 95.4316 71.4794 0.0 97.7891 76.7602 0.0 96.0917 75.8172 0.0 96.0917 52.2422 0.0 99.015 51.1106 0.0 95.8088 54.3168 0.0 114.5745 39.8889 0.0 118.9123 34.0423 0.0 111.9341 20.2745 0.0 96.7518 73.554 0.0 97.129 70.9136 0.0 97.9777 67.896 0.0 96.9404 56.2028 0.0 99.958 59.6919 0.0 99.015 56.6743 0.0 97.4119 73.3654 0.0 97.8834 72.0452 0.0 100.7124 54.5997 0.0 98.3549 74.9685 0.0 118.7237 106.9362 0.0 124.6646 102.787 0.0 129.0024 94.3943 0.0 128.5309 82.3239 0.0 123.1558 77.7032 0.0 118.1579 78.5519 0.0 100.3352 72.2338 0.0 101.6554 70.3478 0.0 101.5611 67.896 0.0 102.8813 65.1613 0.0 101.9383 64.2183 0.0 104.2958 78.269 0.0 102.0326 74.5913 0.0 100.8067 74.4027 0.0 102.9756 61.4836 0.0 102.2212 60.6349 0.0 104.0129 55.7313 0.0 105.8046 56.58 0.0 109.1051 51.9593 0.0 113.7258 72.2338 0.0 110.5196 73.1768 0.0 103.3528 70.9136 0.0 116.4605 12.5419 0.0 106.0875 70.0649 0.0 105.2388 65.4442 0.0 107.4077 62.8981 0.0 105.2388 61.1064 0.0 120.5154 116.2719 0.0 113.8201 63.0867 0.0 115.8004 57.6173 0.0 122.0242 53.751 0.0 128.5309 31.6848 0.0 131.6428 24.3294 0.0 126.2677 57.4287 0.0 133.8117 56.2028 0.0 137.5837 47.5272 0.0 136.0749 38.1915 0.0 130.8884 108.2564 0.0 138.621 75.5343 0.0 139.9412 63.9354 0.0 138.5267 95.3373 0.0 142.2044 32.1563 0.0 144.6562 79.9664 0.0 147.8624 61.6722 0.0 147.5795 47.2443 0.0</DataArray></Points><Cells><DataArray NumberOfComponents="1" type="Int32" Name="connectivity" format="ascii">0 1 1 2 2 3 3 4 0 4 3 5 5 6 4 6 8 7 8 1 0 7 9 7 9 10 8 10 10 11 11 12 12 13 13 14 2 14 9 15 16 15 16 11 17 5 17 18 18 19 19 6 20 14 17 20 21 15 21 22 16 22 18 23 24 23 24 19 25 13 25 26 26 27 27 28 28 29 20 29 29 30 30 31 32 31 32 23 33 22 33 34 34 35 35 36 36 12 36 37 37 38 25 38 21 39 33 39 40 38 40 41 41 42 42 26 43 28 43 44 44 45 45 30 42 46 46 47 27 47 48 37 48 49 49 50 40 50 51 47 51 52 52 53 43 53 32 54 54 55 24 55 56 35 56 57 57 58 58 59 48 59 50 60 60 61 61 62 41 62 46 63 64 63 64 51 65 62 65 63 66 53 66 67 67 44 68 61 68 69 65 69 64 70 70 71 72 71 72 52 49 73 73 74 74 60 59 75 75 76 73 76 72 77 66 77 69 78 78 70 39 79 80 79 80 34 81 74 81 82 82 68 83 45 83 84 84 85 85 31 82 86 86 87 88 87 88 89 89 78 89 90 90 91 91 71 92 77 92 93 67 93 91 94 92 94 76 95 96 95 96 81 97 58 97 98 98 75 99 93 99 100 83 100 101 94 99 101 85 102 102 103 104 103 104 54 105 98 105 95 96 106 106 107 107 86 90 108 108 101 88 109 109 110 108 110 105 111 112 111 112 106 113 110 113 100 97 114 114 111 80 115 115 116 116 117 117 118 118 119 120 119 120 56 112 121 121 122 122 123 123 107 123 124 124 125 125 87 57 126 126 127 128 127 128 114 128 121 129 125 129 130 130 109 113 131 131 132 132 133 84 133 130 131 120 134 134 135 126 135 136 127 136 122 104 137 137 55 136 138 138 139 139 124 139 140 140 141 129 141 138 135 132 141 142 79 115 142 140 143 144 143 144 133 134 143 144 145 145 102 146 103 146 147 137 147 148 119 145 148 148 149 149 150 150 151 146 151 152 142 152 116 153 118 153 154 154 149 152 155 155 117 156 151 147 156 155 157 153 157 154 158 158 159 150 159 156 159 157 158</DataArray><DataArray NumberOfComponents="1" type="Int32" Name="offsets" format="ascii">2 4 6 8 10 12 14 16 18 20 22 24 26 28 30 32 34 36 38 40 42 44 46 48 50 52 54 56 58 60 62 64 66 68 70 72 74 76 78 80 82 84 86 88 90 92 94 96 98 100 102 104 106 108 110 112 114 116 118 120 122 124 126 128 130 132 134 136 138 140 142 144 146 148 150 152 154 156 158 160 162 164 166 168 170 172 174 176 178 180 182 184 186 188 190 192 194 196 198 200 202 204 206 208 210 212 214 216 218 220 222 224 226 228 230 232 234 236 238 240 242 244 246 248 250 252 254 256 258 260 262 264 266 268 270 272 274 276 278 280 282 284 286 288 290 292 294 296 298 300 302 304 306 308 310 312 314 316 318 320 322 324 326 328 330 332 334 336 338 340 342 344 346 348 350 352 354 356 358 360 362 364 366 368 370 372 374 376 378 380 382 384 386 388 390 392 394 396 398 400 402 404 406 408 410 412 414 416 418 420 422 424 426 428 430 432 434 436 438 440 442 444 446 448 450 452 454 456 458 460 462 464 466 468 470 472 474 476 478 480</DataArray><DataArray NumberOfComponents="1" type="UInt8" Name="types" format="ascii">3 3 3 3 3 3 3 3 3 3 3 3 3 3 3 3 3 3 3 3 3 3 3 3 3 3 3 3 3 3 3 3 3 3 3 3 3 3 3 3 3 3 3 3 3 3 3 3 3 3 3 3 3 3 3 3 3 3 3 3 3 3 3 3 3 3 3 3 3 3 3 3 3 3 3 3 3 3 3 3 3 3 3 3 3 3 3 3 3 3 3 3 3 3 3 3 3 3 3 3 3 3 3 3 3 3 3 3 3 3 3 3 3 3 3 3 3 3 3 3 3 3 3 3 3 3 3 3 3 3 3 3 3 3 3 3 3 3 3 3 3 3 3 3 3 3 3 3 3 3 3 3 3 3 3 3 3 3 3 3 3 3 3 3 3 3 3 3 3 3 3 3 3 3 3 3 3 3 3 3 3 3 3 3 3 3 3 3 3 3 3 3 3 3 3 3 3 3 3 3 3 3 3 3 3 3 3 3 3 3 3 3 3 3 3 3 3 3 3 3 3 3 3 3 3 3 3 3 3 3 3 3 3 3 3 3 3 3 3 3</DataArray></Cells><CellData><DataArray NumberOfComponents="1" type="Float32" Name="S" format="ascii">11.3743939184 6.37693945165 19.7708670252 7.33481864125 21.5683293134 10.3717140112 9.63891775668 17.6764086038 7.43536215191 10.8198720348 15.3338295311 16.3403153195 7.56401220649 11.3884576063 13.4584965286 7.74523966963 18.2827734934 4.09418412507 9.87677150186 16.2428841592 9.74762820639 10.7819998966 10.3747144038 12.0593441555 10.6696605841 15.2054181133 20.8403 11.3728302128 16.2636747093 8.60975009161 10.4157754392 12.8642620814 11.0335029841 21.386358518 8.72975597024 5.17877879813 7.51683985861 4.60527834664 7.61965007136 4.32753786119 14.812606059 4.22670230913 10.632507953 13.2426883709 11.1847909824 11.4569649074 8.39322975856 18.1999 9.54109113938 7.19713514185 9.67758775109 7.27578126183 16.1098516644 9.81852759277 5.96778203774 2.66720677864 4.71594290572 6.6339228975 4.43611095105 6.11497509807 4.49881175868 7.22918831751 1.26516726167 3.44162703964 4.47204763056 2.57561595351 5.49292440964 4.08548696363 2.53910520656 2.77344620463 1.28261866897 1.67100025733 4.08113143258 12.1679890902 11.8552015778 19.2099076005 9.13542657187 6.62587527275 3.0831918218 6.15339113173 4.79077412221 1.87180155465 1.01564208263 2.80374056574 1.76166938158 2.62689402908 2.65718592876 3.25164121791 2.27886247062 2.33285316297 3.13467724814 1.60032406718 3.36982339745 3.21865668408 2.41709865955 3.0176 2.3575 2.4518 0.943 3.68253272219 2.9233 3.24068367633 3.01907307795 3.90748068837 1.28261866897 2.07674207594 1.94404430248 1.73111788449 2.87421697337 3.09326999145 17.3719438501 12.5564265498 12.543317965 3.11047088397 2.73632537904 2.40418770066 7.69455641476 5.75307289889 7.08506217686 17.3329967014 4.00081016795 2.2827612972 3.28023061689 2.74605745024 2.92785934771 2.92482057227 2.00040508398 2.29441802643 1.14720901321 2.23552664489 1.94404430248 1.32356357233 1.46696372825 3.47761216929 1.01564208263 2.9339274565 4.44812210376 1.94175584459 3.30184686804 2.58938939907 3.13467724814 4.44412199315 2.31179291676 2.09379979224 5.31102422137 7.28005771955 15.4352710401 10.8424498062 2.3575 2.04002091166 1.78921670012 3.13467724814 1.94404430248 2.45904314724 2.19943505474 2.79897904422 3.16151210025 2.12750497297 0.686514362559 1.40187028287 1.36001394111 2.68050963811 3.88007545932 1.8789141891 1.85988671967 10.9245644439 7.24638899384 9.4474293927 12.0796054741 7.0881992424 5.06944731702 18.1257257935 2.45904314724 2.30215638913 2.45361279138 3.5834 3.03669427668 1.33360338932 3.30184686804 5.80155795024 4.31828108511 1.2403228491 2.51623784249 2.21955839301 2.92482057227 1.13552236878 2.4518 3.4891 1.98254396673 5.67839490877 6.00047431542 5.22067829405 7.71763552003 3.34200051466 8.04152891433 3.90748068837 1.78921670012 8.95998882365 18.643040837 2.8633679086 4.69799533631 2.37441332965 3.34466028469 2.81323943169 2.29441802643 5.41548077459 4.56162543399 16.2855308249 9.50607612951 6.41517292986 5.81686551761 8.7658431477 9.14758606956 7.32693401977 15.73708507 9.90329602759 7.98660320599 19.2210142693 20.5119299887 5.61540466396 7.64295537145 9.46012787229 9.45683731117 9.96238329367 13.1090567643 8.28553093048 12.1617756175 11.6737915542 9.86731336332 15.0082234692 9.57086931736 8.60200030749 13.1456364688 16.5479707838 7.48780004073 8.23817235071 14.4306732629 9.99980250055 16.016848754 18.5730307726 </DataArray></CellData></Piece>
  </UnstructuredGrid>
</VTKFile>
